# vtk DataFile Version 2.0
Structured Grid
ASCII
 
DATASET RECTILINEAR_GRID
DIMENSIONS          250          250    1
X_COORDINATES          250 double
       0.0060000
       0.0180000
       0.0300000
       0.0420000
       0.0540000
       0.0660000
       0.0780000
       0.0900000
       0.1020000
       0.1140000
       0.1260000
       0.1380000
       0.1500000
       0.1620000
       0.1740000
       0.1860000
       0.1980000
       0.2100000
       0.2220000
       0.2340000
       0.2460000
       0.2580000
       0.2700000
       0.2820000
       0.2940000
       0.3060000
       0.3180000
       0.3300000
       0.3420000
       0.3540000
       0.3660000
       0.3780000
       0.3900000
       0.4020000
       0.4140000
       0.4260000
       0.4380000
       0.4500000
       0.4620000
       0.4740000
       0.4860000
       0.4980000
       0.5100000
       0.5220000
       0.5340000
       0.5460000
       0.5580000
       0.5700000
       0.5820000
       0.5940000
       0.6060000
       0.6180000
       0.6300000
       0.6420000
       0.6540000
       0.6660000
       0.6780000
       0.6900000
       0.7020000
       0.7140000
       0.7260000
       0.7380000
       0.7500000
       0.7620000
       0.7740000
       0.7860000
       0.7980000
       0.8100000
       0.8220000
       0.8340000
       0.8460000
       0.8580000
       0.8700000
       0.8820000
       0.8940000
       0.9060000
       0.9180000
       0.9300000
       0.9420000
       0.9540000
       0.9660000
       0.9780000
       0.9900000
       1.0020000
       1.0140000
       1.0260000
       1.0380000
       1.0500000
       1.0620000
       1.0740000
       1.0860000
       1.0980000
       1.1100000
       1.1220000
       1.1340000
       1.1460000
       1.1580000
       1.1700000
       1.1820000
       1.1940000
       1.2060000
       1.2180000
       1.2300000
       1.2420000
       1.2540000
       1.2660000
       1.2780000
       1.2900000
       1.3020000
       1.3140000
       1.3260000
       1.3380000
       1.3500000
       1.3620000
       1.3740000
       1.3860000
       1.3980000
       1.4100000
       1.4220000
       1.4340000
       1.4460000
       1.4580000
       1.4700000
       1.4820000
       1.4940000
       1.5060000
       1.5180000
       1.5300000
       1.5420000
       1.5540000
       1.5660000
       1.5780000
       1.5900000
       1.6020000
       1.6140000
       1.6260000
       1.6380000
       1.6500000
       1.6620000
       1.6740000
       1.6860000
       1.6980000
       1.7100000
       1.7220000
       1.7340000
       1.7460000
       1.7580000
       1.7700000
       1.7820000
       1.7940000
       1.8060000
       1.8180000
       1.8300000
       1.8420000
       1.8540000
       1.8660000
       1.8780000
       1.8900000
       1.9020000
       1.9140000
       1.9260000
       1.9380000
       1.9500000
       1.9620000
       1.9740000
       1.9860000
       1.9980000
       2.0100000
       2.0220000
       2.0340000
       2.0460000
       2.0580000
       2.0700000
       2.0820000
       2.0940000
       2.1060000
       2.1180000
       2.1300000
       2.1420000
       2.1540000
       2.1660000
       2.1780000
       2.1900000
       2.2020000
       2.2140000
       2.2260000
       2.2380000
       2.2500000
       2.2620000
       2.2740000
       2.2860000
       2.2980000
       2.3100000
       2.3220000
       2.3340000
       2.3460000
       2.3580000
       2.3700000
       2.3820000
       2.3940000
       2.4060000
       2.4180000
       2.4300000
       2.4420000
       2.4540000
       2.4660000
       2.4780000
       2.4900000
       2.5020000
       2.5140000
       2.5260000
       2.5380000
       2.5500000
       2.5620000
       2.5740000
       2.5860000
       2.5980000
       2.6100000
       2.6220000
       2.6340000
       2.6460000
       2.6580000
       2.6700000
       2.6820000
       2.6940000
       2.7060000
       2.7180000
       2.7300000
       2.7420000
       2.7540000
       2.7660000
       2.7780000
       2.7900000
       2.8020000
       2.8140000
       2.8260000
       2.8380000
       2.8500000
       2.8620000
       2.8740000
       2.8860000
       2.8980000
       2.9100000
       2.9220000
       2.9340000
       2.9460000
       2.9580000
       2.9700000
       2.9820000
       2.9940000
Y_COORDINATES          250 double
       0.0060000
       0.0060000
       0.0060000
       0.0060000
       0.0060000
       0.0060000
       0.0060000
       0.0060000
       0.0060000
       0.0060000
       0.0060000
       0.0060000
       0.0060000
       0.0060000
       0.0060000
       0.0060000
       0.0060000
       0.0060000
       0.0060000
       0.0060000
       0.0060000
       0.0060000
       0.0060000
       0.0060000
       0.0060000
       0.0060000
       0.0060000
       0.0060000
       0.0060000
       0.0060000
       0.0060000
       0.0060000
       0.0060000
       0.0060000
       0.0060000
       0.0060000
       0.0060000
       0.0060000
       0.0060000
       0.0060000
       0.0060000
       0.0060000
       0.0060000
       0.0060000
       0.0060000
       0.0060000
       0.0060000
       0.0060000
       0.0060000
       0.0060000
       0.0060000
       0.0060000
       0.0060000
       0.0060000
       0.0060000
       0.0060000
       0.0060000
       0.0060000
       0.0060000
       0.0060000
       0.0060000
       0.0060000
       0.0060000
       0.0060000
       0.0060000
       0.0060000
       0.0060000
       0.0060000
       0.0060000
       0.0060000
       0.0060000
       0.0060000
       0.0060000
       0.0060000
       0.0060000
       0.0060000
       0.0060000
       0.0060000
       0.0060000
       0.0060000
       0.0060000
       0.0060000
       0.0060000
       0.0060000
       0.0060000
       0.0060000
       0.0060000
       0.0060000
       0.0060000
       0.0060000
       0.0060000
       0.0060000
       0.0060000
       0.0060000
       0.0060000
       0.0060000
       0.0060000
       0.0060000
       0.0060000
       0.0060000
       0.0060000
       0.0060000
       0.0060000
       0.0060000
       0.0060000
       0.0060000
       0.0060000
       0.0060000
       0.0060000
       0.0060000
       0.0060000
       0.0060000
       0.0060000
       0.0060000
       0.0060000
       0.0060000
       0.0060000
       0.0060000
       0.0060000
       0.0060000
       0.0060000
       0.0060000
       0.0060000
       0.0060000
       0.0060000
       0.0060000
       0.0060000
       0.0060000
       0.0060000
       0.0060000
       0.0060000
       0.0060000
       0.0060000
       0.0060000
       0.0060000
       0.0060000
       0.0060000
       0.0060000
       0.0060000
       0.0060000
       0.0060000
       0.0060000
       0.0060000
       0.0060000
       0.0060000
       0.0060000
       0.0060000
       0.0060000
       0.0060000
       0.0060000
       0.0060000
       0.0060000
       0.0060000
       0.0060000
       0.0060000
       0.0060000
       0.0060000
       0.0060000
       0.0060000
       0.0060000
       0.0060000
       0.0060000
       0.0060000
       0.0060000
       0.0060000
       0.0060000
       0.0060000
       0.0060000
       0.0060000
       0.0060000
       0.0060000
       0.0060000
       0.0060000
       0.0060000
       0.0060000
       0.0060000
       0.0060000
       0.0060000
       0.0060000
       0.0060000
       0.0060000
       0.0060000
       0.0060000
       0.0060000
       0.0060000
       0.0060000
       0.0060000
       0.0060000
       0.0060000
       0.0060000
       0.0060000
       0.0060000
       0.0060000
       0.0060000
       0.0060000
       0.0060000
       0.0060000
       0.0060000
       0.0060000
       0.0060000
       0.0060000
       0.0060000
       0.0060000
       0.0060000
       0.0060000
       0.0060000
       0.0060000
       0.0060000
       0.0060000
       0.0060000
       0.0060000
       0.0060000
       0.0060000
       0.0060000
       0.0060000
       0.0060000
       0.0060000
       0.0060000
       0.0060000
       0.0060000
       0.0060000
       0.0060000
       0.0060000
       0.0060000
       0.0060000
       0.0060000
       0.0060000
       0.0060000
       0.0060000
       0.0060000
       0.0060000
       0.0060000
       0.0060000
       0.0060000
       0.0060000
       0.0060000
       0.0060000
       0.0060000
       0.0060000
       0.0060000
       0.0060000
       0.0060000
       0.0060000
       0.0060000
       0.0060000
       0.0060000
       0.0060000
       0.0060000
       0.0060000
       0.0060000
Z_COORDINATES 1 double
0
POINT_DATA        62500
VECTORS mom double
       0.0052131    5.7423685e-18 0.0
       0.0052131    5.4778085e-19 0.0
       0.0052131    1.1743172e-17 0.0
       0.0052131    2.0051365e-17 0.0
       0.0052131   -4.2946899e-18 0.0
       0.0052131    1.9813207e-18 0.0
       0.0052131    2.7552599e-17 0.0
       0.0052131    3.0051534e-17 0.0
       0.0052131    1.9608323e-17 0.0
       0.0052131   -2.2941021e-17 0.0
       0.0052131   -3.3561245e-17 0.0
       0.0052131   -4.3284706e-17 0.0
       0.0052131   -1.1167685e-17 0.0
       0.0052131   -1.3839405e-18 0.0
       0.0052131    2.5980211e-17 0.0
       0.0052131    1.7105811e-17 0.0
       0.0052131    3.1622205e-18 0.0
       0.0052131    3.8955959e-17 0.0
       0.0052131    6.5058900e-17 0.0
       0.0052131    1.0912829e-16 0.0
       0.0052131    4.2976930e-17 0.0
       0.0052131    1.9496540e-17 0.0
       0.0052131   -3.2781421e-17 0.0
       0.0052131   -3.6539304e-17 0.0
       0.0052131   -4.9907318e-18 0.0
       0.0052131    2.1996492e-18 0.0
       0.0052131    1.8579060e-17 0.0
       0.0052131    6.5548588e-17 0.0
       0.0052131    2.1521468e-17 0.0
       0.0052131    3.9502025e-17 0.0
       0.0052131   -6.9465148e-18 0.0
       0.0052131   -9.9306051e-18 0.0
       0.0052131   -7.7249035e-18 0.0
       0.0052131    1.5030637e-17 0.0
       0.0052131    2.0644650e-17 0.0
       0.0052131    3.7205392e-17 0.0
       0.0052131    6.0591698e-17 0.0
       0.0052131    7.1497298e-17 0.0
       0.0052131    5.8170382e-17 0.0
       0.0052131   -4.5169324e-18 0.0
       0.0052131   -6.6368927e-17 0.0
       0.0052131   -2.5952410e-17 0.0
       0.0052131   -1.2877085e-17 0.0
       0.0052131    2.7462053e-17 0.0
       0.0052131   -8.1488212e-18 0.0
       0.0052131   -2.8924271e-17 0.0
       0.0052131   -2.9190918e-17 0.0
       0.0052131   -8.8514502e-18 0.0
       0.0052131    3.6163211e-17 0.0
       0.0052131    2.7256739e-17 0.0
       0.0052131   -2.3124452e-17 0.0
       0.0052131    3.4751030e-18 0.0
       0.0052131    6.5336337e-18 0.0
       0.0052131   -5.8533056e-18 0.0
       0.0052131   -1.3768871e-18 0.0
       0.0052131    3.2404788e-17 0.0
       0.0052131    1.4913273e-17 0.0
       0.0052131    1.2897516e-17 0.0
       0.0052131   -1.0070606e-17 0.0
       0.0052131   -3.5878953e-19 0.0
       0.0052131    2.3945377e-17 0.0
       0.0052131    9.7478231e-18 0.0
       0.0052131   -1.5714991e-18 0.0
       0.0052131   -4.9225165e-17 0.0
       0.0052131   -4.0842563e-17 0.0
       0.0052131   -6.3851563e-17 0.0
       0.0052131    1.0631363e-17 0.0
       0.0052131   -4.1369778e-17 0.0
       0.0052131   -3.4606136e-17 0.0
       0.0052131   -2.0993030e-17 0.0
       0.0052131   -2.5827589e-17 0.0
       0.0052131   -9.8466441e-18 0.0
       0.0052131   -4.0749049e-17 0.0
       0.0052131   -2.1367411e-17 0.0
       0.0052131    3.0424988e-17 0.0
       0.0052131    4.3729377e-17 0.0
       0.0052131   -2.2675413e-18 0.0
       0.0052131   -1.4776893e-17 0.0
       0.0052131   -4.9012118e-17 0.0
       0.0052131   -3.0177992e-17 0.0
       0.0052131    7.8877614e-18 0.0
       0.0052131    2.2629719e-17 0.0
       0.0052131    4.8078640e-17 0.0
       0.0052131    4.1892546e-17 0.0
       0.0052131    2.6036025e-17 0.0
       0.0052131    2.2146433e-17 0.0
       0.0052131    4.4415508e-17 0.0
       0.0052131   -5.5813604e-17 0.0
       0.0052131   -3.7599199e-17 0.0
       0.0052131    8.6688116e-18 0.0
       0.0052131    7.7845172e-19 0.0
       0.0052131    7.4367015e-17 0.0
       0.0052131   -1.4914267e-17 0.0
       0.0052131   -1.4969684e-17 0.0
       0.0052131    9.6805242e-18 0.0
       0.0052131    4.6875395e-18 0.0
       0.0052131   -2.6769021e-17 0.0
       0.0052131   -1.5516392e-17 0.0
       0.0052131   -1.5683352e-17 0.0
       0.0052131   -1.9979825e-17 0.0
       0.0052131   -2.3571252e-17 0.0
       0.0052131   -4.0160129e-18 0.0
       0.0052131   -1.8193383e-17 0.0
       0.0052131   -3.3699823e-18 0.0
       0.0052131   -6.0203597e-18 0.0
       0.0052131    5.5493722e-17 0.0
       0.0052131    3.8123729e-17 0.0
       0.0052131    1.7146157e-17 0.0
       0.0052131    1.3622994e-17 0.0
       0.0052131    3.7417433e-17 0.0
       0.0052131   -5.5558271e-17 0.0
       0.0052131   -1.3291539e-18 0.0
       0.0052131    6.5729515e-17 0.0
       0.0052131    3.0265462e-17 0.0
       0.0052131   -5.3173450e-17 0.0
       0.0052131    5.8140820e-18 0.0
       0.0052131   -2.4210107e-17 0.0
       0.0052131   -1.8977386e-18 0.0
       0.0052131   -1.1034802e-17 0.0
       0.0052131    1.6382086e-17 0.0
       0.0052131    1.2076451e-17 0.0
       0.0052131    1.5344323e-17 0.0
       0.0052131    1.3436706e-17 0.0
       0.0052131    2.6998891e-17 0.0
       0.0052131   -1.3956510e-17 0.0
       0.0052131   -8.6485261e-18 0.0
       0.0052131   -1.9100956e-17 0.0
       0.0052131   -6.8266596e-18 0.0
       0.0052131   -3.1617211e-17 0.0
       0.0052131   -8.0347968e-17 0.0
       0.0052131   -4.6216528e-17 0.0
       0.0052131   -3.6476147e-17 0.0
       0.0052131   -4.2551591e-17 0.0
       0.0052131    1.5026761e-17 0.0
       0.0052131    4.3414757e-17 0.0
       0.0052131    4.2502337e-17 0.0
       0.0052131    1.8172514e-17 0.0
       0.0052131    1.8249678e-17 0.0
       0.0052131    2.9212363e-17 0.0
       0.0052131    3.8130202e-17 0.0
       0.0052131   -3.7765594e-18 0.0
       0.0052131    1.5066821e-17 0.0
       0.0052131    2.7663460e-17 0.0
       0.0052131    1.8983573e-17 0.0
       0.0052131   -5.3502990e-17 0.0
       0.0052131    1.1011280e-17 0.0
       0.0052131   -1.2827899e-17 0.0
       0.0052131   -4.4566116e-18 0.0
       0.0052131   -2.6919014e-17 0.0
       0.0052131    1.2808408e-18 0.0
       0.0052131    9.8863736e-18 0.0
       0.0052131    9.3039992e-18 0.0
       0.0052131    2.3729484e-17 0.0
       0.0052131    1.1261961e-17 0.0
       0.0052131   -1.9871893e-17 0.0
       0.0052131    2.4870406e-18 0.0
       0.0052131   -1.4204166e-17 0.0
       0.0052131   -6.4925629e-18 0.0
       0.0052131    1.9779090e-17 0.0
       0.0052131    6.8599996e-18 0.0
       0.0052131    9.4000574e-18 0.0
       0.0052131    2.0002840e-17 0.0
       0.0052131    2.0592332e-17 0.0
       0.0052131   -2.8500980e-17 0.0
       0.0052131   -8.0945586e-17 0.0
       0.0052131   -3.5651229e-17 0.0
       0.0052131   -1.4247074e-17 0.0
       0.0052131   -4.9264806e-17 0.0
       0.0052131    4.1185440e-17 0.0
       0.0052131    5.9149785e-17 0.0
       0.0052131    5.2479403e-17 0.0
       0.0052131    2.7329169e-17 0.0
       0.0052131   -5.1530299e-18 0.0
       0.0052131   -2.5582086e-17 0.0
       0.0052131   -1.9333769e-17 0.0
       0.0052131   -2.2870374e-17 0.0
       0.0052131   -2.4081254e-17 0.0
       0.0052131    2.4394949e-17 0.0
       0.0052131   -5.4856125e-17 0.0
       0.0052131   -8.4928038e-17 0.0
       0.0052131   -2.2369857e-17 0.0
       0.0052131    5.9307663e-17 0.0
       0.0052131    3.9183692e-17 0.0
       0.0052131   -3.1778227e-17 0.0
       0.0052131   -3.4546412e-17 0.0
       0.0052131   -8.7641494e-17 0.0
       0.0052131   -7.6906211e-18 0.0
       0.0052131    5.8801191e-19 0.0
       0.0052131   -1.9416008e-17 0.0
       0.0052131   -3.0898448e-17 0.0
       0.0052131   -5.8908936e-19 0.0
       0.0052131    1.7150523e-17 0.0
       0.0052131   -4.7674924e-17 0.0
       0.0052131   -3.4876020e-17 0.0
       0.0052131    2.1291686e-17 0.0
       0.0052131    2.3206072e-18 0.0
       0.0052131   -7.8680791e-18 0.0
       0.0052131    2.9476943e-19 0.0
       0.0052131   -5.0690915e-17 0.0
       0.0052131   -2.6589529e-17 0.0
       0.0052131    1.2322776e-17 0.0
       0.0052131    2.2205608e-17 0.0
       0.0052131    1.8754512e-17 0.0
       0.0052131    2.0558511e-17 0.0
       0.0052131   -2.1092238e-17 0.0
       0.0052131   -3.7372046e-17 0.0
       0.0052131   -4.9530998e-17 0.0
       0.0052131    2.4931095e-17 0.0
       0.0052131   -5.1747050e-18 0.0
       0.0052131   -3.6915922e-17 0.0
       0.0052131    7.1734053e-18 0.0
       0.0052131    2.0562382e-17 0.0
       0.0052131    4.5090123e-17 0.0
       0.0052131    3.1321182e-17 0.0
       0.0052131    3.6218358e-17 0.0
       0.0052131   -1.6957654e-17 0.0
       0.0052131   -5.5578325e-17 0.0
       0.0052131   -2.4208786e-17 0.0
       0.0052131   -1.6173760e-17 0.0
       0.0052131   -1.7805441e-17 0.0
       0.0052131    3.1463513e-18 0.0
       0.0052131    1.3058442e-17 0.0
       0.0052131    2.0437646e-17 0.0
       0.0052131   -8.5936507e-19 0.0
       0.0052131    2.9933195e-21 0.0
       0.0052131    8.3944356e-19 0.0
       0.0052131   -8.4873368e-19 0.0
       0.0052131    7.4847876e-23 0.0
       0.0052131    1.1183814e-20 0.0
       0.0052131    2.4444931e-19 0.0
       0.0052131   -2.0833454e-21 0.0
       0.0052131   -2.3291186e-21 0.0
       0.0052131   -5.0544336e-21 0.0
       0.0052131   -2.7369976e-22 0.0
       0.0052131   -2.1907977e-23 0.0
       0.0052131   -7.4602106e-26 0.0
       0.0052131   -5.6883382e-36 0.0
       0.0052131    1.2987749e-40 0.0
       0.0052131   -6.7759464e-46 0.0
       0.0052131    2.2666119e-49 0.0
       0.0052131   -3.4882622e-59 0.0
       0.0052131    2.0986655e-67 0.0
       0.0052131    1.9327674e-90 0.0
       0.0052131  -4.1222241e-101 0.0
       0.0052131   1.5652115e-102 0.0
       0.0052131  -4.1393126e-112 0.0
       0.0052131   5.3959088e-119 0.0
       0.0052131  -2.6361228e-122 0.0
       0.0052131  -1.3761647e-123 0.0
       0.0052131  -9.8341981e-125 0.0
       0.0095694    9.6558871e-18 0.0
       0.0095694    1.1074730e-18 0.0
       0.0095694    1.2417290e-17 0.0
       0.0095694   -8.7463063e-18 0.0
       0.0095694   -1.9477024e-17 0.0
       0.0095694    3.5539280e-17 0.0
       0.0095694   -8.7722784e-18 0.0
       0.0095694    3.0175998e-17 0.0
       0.0095694    1.2310426e-17 0.0
       0.0095694   -2.6476382e-17 0.0
       0.0095694   -2.5947188e-17 0.0
       0.0095694   -5.3731419e-17 0.0
       0.0095694   -1.0718471e-17 0.0
       0.0095694    2.9543049e-17 0.0
       0.0095694    4.4231364e-18 0.0
       0.0095694    4.8264631e-17 0.0
       0.0095694    1.5673811e-17 0.0
       0.0095694    1.7850375e-17 0.0
       0.0095694    3.9937054e-17 0.0
       0.0095694    7.1462286e-17 0.0
       0.0095694    3.5435262e-17 0.0
       0.0095694    1.3408494e-17 0.0
       0.0095694   -5.1954981e-17 0.0
       0.0095694   -1.0780015e-17 0.0
       0.0095694    1.9537252e-17 0.0
       0.0095694   -9.3021556e-19 0.0
       0.0095694    9.1874269e-18 0.0
       0.0095694    3.0464703e-17 0.0
       0.0095694    4.0351129e-17 0.0
       0.0095694    3.3158351e-17 0.0
       0.0095694   -8.3333417e-18 0.0
       0.0095694    9.8934478e-18 0.0
       0.0095694    3.5415004e-18 0.0
       0.0095694   -4.4530835e-18 0.0
       0.0095694    5.3305284e-18 0.0
       0.0095694    4.1968036e-17 0.0
       0.0095694    3.4095624e-17 0.0
       0.0095694    5.5596469e-17 0.0
       0.0095694    4.4165501e-17 0.0
       0.0095694   -9.9406560e-19 0.0
       0.0095694   -2.3390591e-17 0.0
       0.0095694   -1.8996383e-17 0.0
       0.0095694    1.2350762e-17 0.0
       0.0095694    8.9967464e-18 0.0
       0.0095694   -3.8633055e-17 0.0
       0.0095694   -1.1989842e-17 0.0
       0.0095694   -2.0069470e-17 0.0
       0.0095694   -1.5495719e-17 0.0
       0.0095694    2.0204050e-17 0.0
       0.0095694    1.5112714e-17 0.0
       0.0095694   -6.3577439e-18 0.0
       0.0095694   -2.2516944e-17 0.0
       0.0095694   -2.7046234e-18 0.0
       0.0095694    6.0869930e-18 0.0
       0.0095694   -2.2521672e-17 0.0
       0.0095694    3.2391215e-17 0.0
       0.0095694    3.4538371e-17 0.0
       0.0095694    1.8483644e-17 0.0
       0.0095694   -3.8119181e-18 0.0
       0.0095694   -5.9360440e-20 0.0
       0.0095694    1.2297458e-17 0.0
       0.0095694    5.3324231e-18 0.0
       0.0095694    8.5924409e-19 0.0
       0.0095694   -4.8089986e-17 0.0
       0.0095694   -3.5053984e-17 0.0
       0.0095694   -3.4636962e-17 0.0
       0.0095694   -2.9811948e-17 0.0
       0.0095694   -3.6096513e-17 0.0
       0.0095694   -3.5121183e-17 0.0
       0.0095694   -1.9565638e-17 0.0
       0.0095694   -2.8003941e-17 0.0
       0.0095694   -3.8143697e-17 0.0
       0.0095694    2.9920884e-18 0.0
       0.0095694   -1.0092705e-17 0.0
       0.0095694   -2.6071812e-17 0.0
       0.0095694    2.1320174e-17 0.0
       0.0095694    2.8431493e-17 0.0
       0.0095694   -1.8781545e-18 0.0
       0.0095694   -3.5330277e-17 0.0
       0.0095694   -5.7762784e-18 0.0
       0.0095694   -2.7562259e-17 0.0
       0.0095694    6.9327762e-18 0.0
       0.0095694    6.3572775e-17 0.0
       0.0095694    5.0129054e-17 0.0
       0.0095694    1.1550167e-17 0.0
       0.0095694    2.4754552e-17 0.0
       0.0095694    2.0222321e-17 0.0
       0.0095694   -2.0218231e-17 0.0
       0.0095694   -4.1554561e-17 0.0
       0.0095694    2.2446749e-17 0.0
       0.0095694   -3.6800860e-19 0.0
       0.0095694    6.2910446e-17 0.0
       0.0095694   -1.1257158e-17 0.0
       0.0095694   -1.7777570e-17 0.0
       0.0095694   -5.7596773e-18 0.0
       0.0095694    3.3103986e-17 0.0
       0.0095694   -3.1394305e-17 0.0
       0.0095694   -1.6661576e-17 0.0
       0.0095694   -1.8743687e-17 0.0
       0.0095694   -1.2429402e-17 0.0
       0.0095694   -2.9744431e-17 0.0
       0.0095694   -3.1014147e-17 0.0
       0.0095694   -2.7118055e-17 0.0
       0.0095694    1.0477402e-17 0.0
       0.0095694    1.3068602e-17 0.0
       0.0095694    4.4829222e-17 0.0
       0.0095694    5.5009829e-17 0.0
       0.0095694    2.4764854e-17 0.0
       0.0095694    2.3840451e-17 0.0
       0.0095694    2.1287004e-17 0.0
       0.0095694   -1.0502107e-17 0.0
       0.0095694   -2.3380407e-17 0.0
       0.0095694    5.2117288e-17 0.0
       0.0095694    8.7030770e-18 0.0
       0.0095694   -2.4482307e-17 0.0
       0.0095694   -3.7556085e-18 0.0
       0.0095694   -5.5931188e-17 0.0
       0.0095694   -4.4091545e-18 0.0
       0.0095694   -8.0345719e-18 0.0
       0.0095694    1.0592667e-17 0.0
       0.0095694    2.5280698e-17 0.0
       0.0095694   -2.5341186e-18 0.0
       0.0095694    1.1071065e-17 0.0
       0.0095694    3.1212868e-17 0.0
       0.0095694    1.3436510e-17 0.0
       0.0095694   -9.9462837e-18 0.0
       0.0095694   -2.1051567e-17 0.0
       0.0095694   -2.4623547e-18 0.0
       0.0095694   -3.1860748e-17 0.0
       0.0095694   -7.6503136e-17 0.0
       0.0095694   -5.3926591e-17 0.0
       0.0095694   -2.1203896e-17 0.0
       0.0095694   -2.5692046e-17 0.0
       0.0095694   -3.1220264e-17 0.0
       0.0095694    4.3111764e-17 0.0
       0.0095694    3.1501021e-17 0.0
       0.0095694    6.5105685e-18 0.0
       0.0095694    2.1909939e-17 0.0
       0.0095694    5.4531822e-17 0.0
       0.0095694    1.9588770e-17 0.0
       0.0095694   -8.4823813e-18 0.0
       0.0095694    2.0176652e-17 0.0
       0.0095694    2.0754762e-17 0.0
       0.0095694    2.0327941e-17 0.0
       0.0095694   -1.3791248e-17 0.0
       0.0095694    2.1193473e-17 0.0
       0.0095694    1.6526407e-17 0.0
       0.0095694   -4.1798395e-18 0.0
       0.0095694   -3.1249398e-17 0.0
       0.0095694    1.3992098e-17 0.0
       0.0095694   -8.9043016e-18 0.0
       0.0095694    7.8356208e-18 0.0
       0.0095694    1.1709522e-17 0.0
       0.0095694    1.1930268e-17 0.0
       0.0095694   -1.7385438e-17 0.0
       0.0095694   -8.4145425e-18 0.0
       0.0095694   -1.5423019e-17 0.0
       0.0095694   -3.4386310e-18 0.0
       0.0095694    6.8200256e-18 0.0
       0.0095694   -2.3103753e-18 0.0
       0.0095694    5.9034026e-18 0.0
       0.0095694    1.7416605e-17 0.0
       0.0095694    1.9499624e-17 0.0
       0.0095694   -1.4167998e-17 0.0
       0.0095694   -4.5374986e-17 0.0
       0.0095694   -3.5584439e-17 0.0
       0.0095694   -4.5728906e-18 0.0
       0.0095694   -1.0806835e-17 0.0
       0.0095694    2.4026999e-17 0.0
       0.0095694    4.0838233e-17 0.0
       0.0095694    2.9568596e-17 0.0
       0.0095694    2.6241179e-17 0.0
       0.0095694    6.0075248e-18 0.0
       0.0095694   -1.7107456e-17 0.0
       0.0095694   -1.6860215e-17 0.0
       0.0095694   -1.5096876e-17 0.0
       0.0095694   -3.2123574e-17 0.0
       0.0095694   -2.4204210e-17 0.0
       0.0095694   -4.0425819e-17 0.0
       0.0095694   -6.7295234e-17 0.0
       0.0095694   -1.8326573e-17 0.0
       0.0095694    5.8263933e-17 0.0
       0.0095694    3.0470362e-17 0.0
       0.0095694   -2.5533800e-17 0.0
       0.0095694   -5.2255458e-17 0.0
       0.0095694   -8.1283861e-17 0.0
       0.0095694   -9.1633243e-18 0.0
       0.0095694    1.1445374e-17 0.0
       0.0095694    9.2053136e-19 0.0
       0.0095694    6.7862796e-18 0.0
       0.0095694   -2.9462311e-18 0.0
       0.0095694   -1.6856859e-17 0.0
       0.0095694   -5.6192125e-17 0.0
       0.0095694   -1.3915007e-17 0.0
       0.0095694    7.5975518e-18 0.0
       0.0095694    1.7412908e-17 0.0
       0.0095694    1.8863253e-17 0.0
       0.0095694   -3.1337611e-18 0.0
       0.0095694   -4.0465475e-18 0.0
       0.0095694   -4.0252942e-17 0.0
       0.0095694   -1.9639863e-18 0.0
       0.0095694    4.0826595e-17 0.0
       0.0095694    4.4269697e-17 0.0
       0.0095694   -5.3866885e-18 0.0
       0.0095694   -3.1353836e-17 0.0
       0.0095694   -7.0767798e-17 0.0
       0.0095694    8.0516636e-18 0.0
       0.0095694    1.1171270e-17 0.0
       0.0095694    8.6772051e-18 0.0
       0.0095694   -2.4625360e-17 0.0
       0.0095694    1.1368829e-17 0.0
       0.0095694    1.5509020e-17 0.0
       0.0095694    2.2309780e-17 0.0
       0.0095694    3.1838421e-17 0.0
       0.0095694    4.5860603e-17 0.0
       0.0095694    6.8581128e-18 0.0
       0.0095694   -2.6192860e-17 0.0
       0.0095694   -5.5534107e-17 0.0
       0.0095694   -6.0132240e-18 0.0
       0.0095694   -1.9747855e-17 0.0
       0.0095694   -7.3384907e-18 0.0
       0.0095694    4.7510817e-17 0.0
       0.0095694    1.9930378e-17 0.0
       0.0095694   -3.0358000e-17 0.0
       0.0095694    4.0525508e-19 0.0
       0.0095694    9.6892371e-18 0.0
       0.0095694   -1.0322357e-17 0.0
       0.0095694   -2.3278201e-20 0.0
       0.0095694   -8.5765660e-19 0.0
       0.0095694    2.1944017e-18 0.0
       0.0095694   -1.3665871e-19 0.0
       0.0095694   -1.0563821e-19 0.0
       0.0095694   -1.2202163e-19 0.0
       0.0095694   -5.0901605e-21 0.0
       0.0095694   -3.9211952e-22 0.0
       0.0095694   -6.7456976e-25 0.0
       0.0095694   -2.0410245e-33 0.0
       0.0095694   -2.8582683e-35 0.0
       0.0095694   -3.7697011e-39 0.0
       0.0095694    1.8334582e-47 0.0
       0.0095694   -1.1792528e-57 0.0
       0.0095694    9.6004345e-62 0.0
       0.0095694   -6.9508135e-72 0.0
       0.0095694   -2.3303640e-92 0.0
       0.0095694    2.8288365e-95 0.0
       0.0095694  -6.7114143e-112 0.0
       0.0095694   6.7527449e-118 0.0
       0.0095694  -1.7772956e-120 0.0
       0.0095694   3.0319431e-122 0.0
       0.0095694   3.2300360e-124 0.0
       0.0158330    3.3304149e-18 0.0
       0.0158330   -6.6451820e-18 0.0
       0.0158330    2.8950175e-17 0.0
       0.0158330   -2.9467627e-17 0.0
       0.0158330    1.9444952e-17 0.0
       0.0158330    4.2323647e-17 0.0
       0.0158330    3.4599695e-18 0.0
       0.0158330    1.2472501e-17 0.0
       0.0158330   -2.8711511e-17 0.0
       0.0158330   -3.2756984e-17 0.0
       0.0158330    1.5921392e-17 0.0
       0.0158330   -3.6393795e-17 0.0
       0.0158330   -4.0035223e-17 0.0
       0.0158330    5.2721273e-17 0.0
       0.0158330    3.3650140e-17 0.0
       0.0158330   -1.7133064e-17 0.0
       0.0158330    3.3784450e-18 0.0
       0.0158330    6.1922744e-18 0.0
       0.0158330    4.2483549e-17 0.0
       0.0158330    6.1855978e-17 0.0
       0.0158330    1.9249859e-17 0.0
       0.0158330    1.0271587e-18 0.0
       0.0158330   -2.3750772e-17 0.0
       0.0158330   -1.9533544e-17 0.0
       0.0158330    3.1870736e-17 0.0
       0.0158330   -9.8669611e-19 0.0
       0.0158330   -1.9828067e-18 0.0
       0.0158330    2.7575290e-18 0.0
       0.0158330    1.8711578e-17 0.0
       0.0158330    4.2041410e-17 0.0
       0.0158330    2.8067270e-17 0.0
       0.0158330   -1.3301749e-18 0.0
       0.0158330   -1.0696477e-17 0.0
       0.0158330   -1.8323893e-17 0.0
       0.0158330   -1.7945380e-17 0.0
       0.0158330    3.2893792e-18 0.0
       0.0158330    7.0843127e-18 0.0
       0.0158330    7.0990703e-17 0.0
       0.0158330    4.1343151e-17 0.0
       0.0158330    1.2946064e-17 0.0
       0.0158330    2.5389886e-17 0.0
       0.0158330    1.7777401e-17 0.0
       0.0158330    1.1307683e-17 0.0
       0.0158330   -2.6612740e-17 0.0
       0.0158330   -5.5305775e-17 0.0
       0.0158330    3.8397217e-18 0.0
       0.0158330    7.9469331e-18 0.0
       0.0158330   -3.6674987e-17 0.0
       0.0158330    8.2779964e-18 0.0
       0.0158330    3.8086421e-17 0.0
       0.0158330   -1.5170764e-17 0.0
       0.0158330   -5.3412542e-17 0.0
       0.0158330   -3.7049264e-17 0.0
       0.0158330    1.1875075e-17 0.0
       0.0158330   -1.5483084e-17 0.0
       0.0158330    2.6065592e-17 0.0
       0.0158330    9.1995313e-18 0.0
       0.0158330    3.3339791e-17 0.0
       0.0158330   -1.6044749e-18 0.0